7
 energy: -7.821853684935 gnorm: 0.000033737996 xtb: 6.4.1 (23d549d)
C        -1.86014504390000    0.00000031240000   -0.00832467030000
S         0.84569707320000   -0.00000092230000   -0.04905700740000
H         0.64540555910000    0.96035188640000    0.84414198060000
H         0.64538787520000   -0.96032691640000    0.84416741990000
H        -2.00428904500000    0.91655573240000   -0.54016590610000
H        -2.01566430510000    0.00023316790000    1.05126424220000
H        -2.00429185900000   -0.91678825670000   -0.53976365440000
