4
 energy: -4.659763149317 gnorm: 0.000033183930 xtb: 6.4.1 (23d549d)
S         0.08170765920000   -0.00000222470000   -0.04376578100000
H        -0.23749801910000    0.96246409280000    0.81380736080000
H        -0.23750179020000   -0.96238327900000    0.81388137610000
H        -2.12401552360000   -0.00001005000000   -0.23555564930000
