12
 energy: -14.166438031329 gnorm: 0.000030770180 xtb: 6.4.1 (23d549d)
C        -0.71098191060000   -0.61111099510000   -0.28019592010000
C         0.71092830050000   -0.61109254860000    0.28020996890000
N         1.42494867830000    0.59045374220000   -0.10591744500000
N        -1.42490059180000    0.59050168440000    0.10589908760000
H        -1.20273648630000   -1.54424749500000    0.05180618290000
H        -0.66951907860000   -0.62865410720000   -1.37490422340000
H         1.20260943580000   -1.54427372920000   -0.05175344730000
H         0.66946717440000   -0.62859658970000    1.37491876400000
H         1.37798249530000    0.72130388190000   -1.10993355710000
H         2.39995049920000    0.52808123370000    0.16435884230000
H        -1.37786624390000    0.72142771780000    1.10990019890000
H        -2.39991718500000    0.52814729060000   -0.16430506730000
