17
 energy: -17.511142956676 gnorm: 0.000059611704 xtb: 6.4.1 (23d549d)
C        -0.72519618180000   -0.19300556230000    1.47489123240000
C        -0.56150007970000   -0.00038402310000    0.00632696980000
C        -0.78519155670000   -1.16934910000000   -0.88927448400000
C        -0.77647468320000    1.36231937630000   -0.55565117590000
N         2.47550275790000    0.00251838240000   -0.09177647580000
H         1.45067371550000    0.00183258530000   -0.13132035200000
H         2.75820029140000   -0.83193951100000    0.40870377980000
H         2.75451655430000    0.79833704930000    0.46989636540000
H        -1.78639380040000   -0.22120770070000    1.75557376690000
H        -0.26822392900000    0.62401244760000    2.03254100190000
H        -0.28246633410000   -1.13395633020000    1.79996482870000
H        -1.85659432450000   -1.34161811810000   -1.05663181800000
H        -0.37388342100000   -2.08025057450000   -0.45717512020000
H        -0.32793006330000   -1.00558107840000   -1.86399773830000
H        -1.84641735090000    1.57732148160000   -0.67627191500000
H        -0.31569982630000    1.45509794880000   -1.53810515130000
H        -0.36410324440000    2.12795090290000    0.09973914750000
