8
 energy: -10.437760048938 gnorm: 0.000083306581 xtb: 6.4.1 (23d549d)
C         0.00360270590000   -0.50619176380000   -0.10834734550000
N        -1.20111620550000    0.21579237790000    0.09643203430000
H        -1.17866555430000    1.11830600380000   -0.36605139250000
H        -2.00561794440000   -0.31197958970000   -0.21883399790000
N         1.21669236490000    0.19065099080000   -0.03338331520000
H         0.00187802370000   -1.50832305330000    0.28890669460000
H         1.08391985720000    1.19406723890000   -0.00043092550000
H         1.83909213410000   -0.10816451580000    0.71138677500000
