11
 energy: -11.158144883137 gnorm: 0.000014381830 xtb: 6.4.1 (23d549d)
C        -1.34327073880000   -0.22548594860000   -0.00000254920000
C        -0.02745045900000    0.55798411120000    0.00000246850000
N         1.14571630820000   -0.28701168210000    0.00000216240000
H         1.22156615940000   -0.85812295160000    0.83144402360000
H         1.22155167030000   -0.85813995950000   -0.83142933090000
H         2.93532892340000    0.60305617400000   -0.00003975580000
H        -2.18682669930000    0.45932903540000   -0.00000343580000
H        -1.41158495310000   -0.85740336580000    0.88370470770000
H        -1.41158005260000   -0.85739923290000   -0.88371308960000
H         0.02215424630000    1.19746006600000    0.88442923310000
H         0.02215754120000    1.19746400660000   -0.88442144030000
